50
Lattice="5.0819235 -0.0011333923 0.027774505 -0.00016987571 6.236614 -0.0009511302 -2.105486 0.0019548798 4.9750934" Properties=species:S:1:pos:R:3:Z:I:1:force:R:3 energy=-3161.012449830798 field_type=dipole dipole="0 0 0" hf_estimate=-3161.012449830798 electronic_dipole="0.6779043475404715 -10.902173951948958 -0.7185390453433134" ionic_dipole="287.4206492098615 197.39115999784147 2.266397702946465"
C	0.5408310890197754	0.32683509588241577	0.30854031443595886	6	0.0007037109251808858	-0.0003177883461905644	0.0006335198098815134
C	4.52894926071167	3.444002389907837	-0.2688392102718353	6	-0.001697956503432433	-0.00028744932932123863	-0.0007579612011082392
C	1.0813000202178955	0.41322383284568787	-1.1176987886428833	6	0.0003437564877482076	0.0001910329621517713	6.067803373865145e-05
C	3.9890048503875732	3.531252145767212	1.1575239896774292	6	5.2193393427738325e-05	0.00023525593589350034	-0.0004378588621056078
H	3.0946781635284424	0.03335396572947502	-0.5957079529762268	1	0.0002344846049561446	0.00018589075590273306	0.0001532377462213401
H	1.975359559059143	3.1522486209869385	0.6361326575279236	1	-0.000416518706172099	0.0003111034780668146	-0.00033732872993690976
H	2.7676026821136475	-0.116660937666893	-2.2691164016723633	1	0.0003820659243035426	0.00018769052808989645	-0.0009068280720178969
H	2.302358388900757	3.0034022331237793	2.309666633605957	1	-0.00035686911368325514	0.00018794763840234837	0.0002529965474526823
H	2.2468161582946777	-1.3109405040740967	-1.1625574827194214	1	0.00016712170309374338	1.9797494058797295e-05	0.0001249556118516297
H	2.8222315311431885	1.8078994750976562	1.2039551734924316	1	-0.00027613647557335453	-0.0003239589936894103	-0.00023885548026782714
H	1.2390532493591309	1.478194236755371	-1.3397873640060425	1	3.265300968139294e-05	0.00045405681179007824	-0.00011287142716638978
H	3.8321194648742676	4.596394062042236	1.3794175386428833	1	-5.707848936432467e-05	0.00034092827431123654	6.94197843620165e-06
H	0.3589681386947632	0.01766544207930565	-1.8373866081237793	1	-0.0002301137296444621	-0.0002113446768354724	-0.0003656108643066202
H	4.711338043212891	3.135441541671753	1.877075433731079	1	4.37087531168252e-05	-0.0002488827824534517	0.0004208895814837815
N	2.3712222576141357	-0.2925059199333191	-1.2912185192108154	7	-0.00012444139122672586	-0.0003468418114976305	0.0007600180836078547
N	2.698627233505249	2.8265247344970703	1.3318358659744263	7	0.0002663662837001818	-0.0002938770871325365	-0.0004466006127289728
O	1.3846272230148315	0.16598068177700043	1.2443009614944458	8	0.0008080977120363624	5.527871717716129e-05	0.0006018952414499282
O	3.6849026679992676	3.2832632064819336	-1.204392671585083	8	0.00019334695496383853	-0.00012007051591504335	0.0005116495217793067
O	-0.7075618505477905	0.47771233320236206	0.46622157096862793	8	-0.0006466324358165611	0.0001054152281052843	0.00015452329778359967
O	5.7774224281311035	3.5941367149353027	-0.42672282457351685	8	0.0005777268720794483	-0.0001236700602893701	-7.739020404802579e-05
Es	1.1844049161376953	1.0966271201554387	-1.246915364715576	99	0	0	0
Es	5.966776484802246	3.5984466076678783	-0.13622049468278885	99	0	0	0
Es	1.688445	0.149812	1.157166	99	0	0	0
Es	5.3662129161376955	3.7874531201554387	-0.36497536471557623	99	0	0	0
Es	3.3810749161376954	3.267490120155439	-1.117255364715576	99	0	0	0
Es	2.293804791849131	-0.8536341071394835	-1.219045234539613	99	0	0	0
Es	0.6084034313354492	0.1454015124875605	-1.5808348700327874	99	0	0	0
Es	1.151899	0.459151	0.980351	99	0	0	0
Es	0.8292939161376953	0.3470621201554388	-0.42332536471557614	99	0	0	0
Es	5.858423400939941	3.607108727823317	-0.733187859398365	99	0	0	0
Es	3.918129916137695	3.576247120155439	-0.9402803647155764	99	0	0	0
Es	2.5637307918491308	-0.2003501071394833	-1.7975942345396132	99	0	0	0
Es	-0.353150609090811	0.19307316503719996	0.4146266248587519	99	0	0	0
Es	1.104689	-0.016177	0.928179	99	0	0	0
Es	3.9645509161376955	3.1008041201554386	-0.8884953647155758	99	0	0	0
Es	4.24068	3.464714	0.463084	99	0	0	0
Es	-0.8970306090908107	0.4815671650372	0.1757496248587519	99	0	0	0
Es	2.775628	2.265273	1.260093	99	0	0	0
Es	2.744803791849131	-0.11480010713948285	-0.919584234539613	99	0	0	0
Es	3.851373916137695	3.262190120155439	-1.5209673647155761	99	0	0	0
Es	-0.7885504848022462	0.49016539233212175	0.7726994946827889	99	0	0	0
Es	3.242132	3.122445	1.249069	99	0	0	0
Es	1.8278919161376952	0.0038521201554387804	-1.2087823647155762	99	0	0	0
Es	2.325101	3.004173	0.960065	99	0	0	0
Es	-0.2971785686645507	0.6714425124875605	0.4046151299672127	99	0	0	0
Es	3.886443	4.21477	1.2866	99	0	0	0
Es	2.506217	2.919206	1.838136	99	0	0	0
Es	1.2181418757114355	0.1449827727050783	1.5608561301759631	99	0	0	0
Es	5.423905400939941	3.3092987278233172	-0.3752628593983651	99	0	0	0
Es	4.461880484802246	3.263245607667878	1.6205625053172112	99	0	0	0
